ITEM: TIMESTEP
0
ITEM: NUMBER OF ATOMS
4
ITEM: BOX BOUNDS pp pp pp
0.0000000000000000e+00 4.0400000000000000e+00
0.0000000000000000e+00 4.0400000000000000e+00
0.0000000000000000e+00 4.0400000000000000e+00
ITEM: ATOMS id type xu yu zu 
1 1 0 0 0 
2 1 2.02 2.02 0 
3 1 2.02 0 2.02 
4 1 0 2.02 2.02 
ITEM: TIMESTEP
500
ITEM: NUMBER OF ATOMS
4
ITEM: BOX BOUNDS pp pp pp
0.0000000000000000e+00 4.0400000000000000e+00
0.0000000000000000e+00 4.0400000000000000e+00
0.0000000000000000e+00 4.0400000000000000e+00
ITEM: ATOMS id type xu yu zu 
1 1 0.0677846 -0.0579173 -0.00476062 
2 1 2.01625 1.97592 0.0285079 
3 1 1.95623 0.0393009 1.91962 
4 1 -0.000262666 2.0827 2.09663 
ITEM: TIMESTEP
1000
ITEM: NUMBER OF ATOMS
4
ITEM: BOX BOUNDS pp pp pp
0.0000000000000000e+00 4.0400000000000000e+00
0.0000000000000000e+00 4.0400000000000000e+00
0.0000000000000000e+00 4.0400000000000000e+00
ITEM: ATOMS id type xu yu zu 
1 1 0.00434585 0.0511924 0.0591036 
2 1 2.05153 2.02836 -0.0250971 
3 1 2.02166 -0.0145452 2.02692 
4 1 -0.0375304 1.97499 1.97907 
ITEM: TIMESTEP
1500
ITEM: NUMBER OF ATOMS
4
ITEM: BOX BOUNDS pp pp pp
0.0000000000000000e+00 4.0400000000000000e+00
0.0000000000000000e+00 4.0400000000000000e+00
0.0000000000000000e+00 4.0400000000000000e+00
ITEM: ATOMS id type xu yu zu 
1 1 -0.0188779 0.0601135 0.0129522 
2 1 2.02408 2.0067 0.00830304 
3 1 2.0469 0.00760586 2.06192 
4 1 -0.012103 1.96558 1.95683 
ITEM: TIMESTEP
2000
ITEM: NUMBER OF ATOMS
4
ITEM: BOX BOUNDS pp pp pp
0.0000000000000000e+00 4.0400000000000000e+00
0.0000000000000000e+00 4.0400000000000000e+00
0.0000000000000000e+00 4.0400000000000000e+00
ITEM: ATOMS id type xu yu zu 
1 1 0.0117987 -0.0555439 -0.0662703 
2 1 1.96666 1.96743 0.121707 
3 1 2.01696 0.0461366 1.98018 
4 1 0.044583 2.08197 2.00439 
ITEM: TIMESTEP
2500
ITEM: NUMBER OF ATOMS
4
ITEM: BOX BOUNDS pp pp pp
0.0000000000000000e+00 4.0400000000000000e+00
0.0000000000000000e+00 4.0400000000000000e+00
0.0000000000000000e+00 4.0400000000000000e+00
ITEM: ATOMS id type xu yu zu 
1 1 0.0344243 0.0115763 0.0286954 
2 1 2.02229 2.0136 0.00104087 
3 1 1.99374 0.000654681 2.00604 
4 1 -0.0104482 2.01417 2.00423 
ITEM: TIMESTEP
3000
ITEM: NUMBER OF ATOMS
4
ITEM: BOX BOUNDS pp pp pp
0.0000000000000000e+00 4.0400000000000000e+00
0.0000000000000000e+00 4.0400000000000000e+00
0.0000000000000000e+00 4.0400000000000000e+00
ITEM: ATOMS id type xu yu zu 
1 1 0.00611209 0.0738506 0.0766062 
2 1 2.07829 2.0399 -0.0863868 
3 1 2.01941 -0.0241444 2.04855 
4 1 -0.063818 1.95039 2.00123 
ITEM: TIMESTEP
3500
ITEM: NUMBER OF ATOMS
4
ITEM: BOX BOUNDS pp pp pp
0.0000000000000000e+00 4.0400000000000000e+00
0.0000000000000000e+00 4.0400000000000000e+00
0.0000000000000000e+00 4.0400000000000000e+00
ITEM: ATOMS id type xu yu zu 
1 1 0.0158521 -0.0498333 -0.0328998 
2 1 2.02452 1.99283 0.0319253 
3 1 2.00697 0.0237865 1.97404 
4 1 -0.00734798 2.07321 2.06694 
ITEM: TIMESTEP
4000
ITEM: NUMBER OF ATOMS
4
ITEM: BOX BOUNDS pp pp pp
0.0000000000000000e+00 4.0400000000000000e+00
0.0000000000000000e+00 4.0400000000000000e+00
0.0000000000000000e+00 4.0400000000000000e+00
ITEM: ATOMS id type xu yu zu 
1 1 0.00656138 -0.0372862 -0.0488236 
2 1 1.97051 2.02452 0.0295997 
3 1 2.01313 -0.00654673 2.03058 
4 1 0.0498008 2.05931 2.02865 
ITEM: TIMESTEP
4500
ITEM: NUMBER OF ATOMS
4
ITEM: BOX BOUNDS pp pp pp
0.0000000000000000e+00 4.0400000000000000e+00
0.0000000000000000e+00 4.0400000000000000e+00
0.0000000000000000e+00 4.0400000000000000e+00
ITEM: ATOMS id type xu yu zu 
1 1 -0.0596638 0.0539366 0.0101415 
2 1 2.02375 2.08082 -0.0508357 
3 1 2.0765 -0.0574768 2.11649 
4 1 -0.000580206 1.96272 1.96421 
ITEM: TIMESTEP
5000
ITEM: NUMBER OF ATOMS
4
ITEM: BOX BOUNDS pp pp pp
0.0000000000000000e+00 4.0400000000000000e+00
0.0000000000000000e+00 4.0400000000000000e+00
0.0000000000000000e+00 4.0400000000000000e+00
ITEM: ATOMS id type xu yu zu 
1 1 -0.0107822 -0.0251366 -0.0155169 
2 1 2.04608 2.02379 -0.0283442 
3 1 2.02423 0.0037456 1.99709 
4 1 -0.0195243 2.0376 2.08677 
ITEM: TIMESTEP
5500
ITEM: NUMBER OF ATOMS
4
ITEM: BOX BOUNDS pp pp pp
-1.2103593771988663e-02 4.0521035937719798e+00
-1.2103593771988663e-02 4.0521035937719798e+00
-1.2103593771988663e-02 4.0521035937719798e+00
ITEM: ATOMS id type xu yu zu 
1 1 0.0470604 -0.0995208 -0.0329698 
2 1 2.00118 2.01239 -0.0120371 
3 1 1.95561 0.00163936 1.91624 
4 1 0.0119397 2.10128 2.14456 
ITEM: TIMESTEP
6000
ITEM: NUMBER OF ATOMS
4
ITEM: BOX BOUNDS pp pp pp
-1.8177182024213145e-02 4.0581771820241848e+00
-1.8177182024213145e-02 4.0581771820241848e+00
-1.8177182024213145e-02 4.0581771820241848e+00
ITEM: ATOMS id type xu yu zu 
1 1 -0.0452059 0.0613718 0.0746512 
2 1 2.09282 2.07489 -0.153455 
3 1 2.04365 -0.070661 2.03689 
4 1 -0.0876165 1.93805 2.04556 
ITEM: TIMESTEP
6500
ITEM: NUMBER OF ATOMS
4
ITEM: BOX BOUNDS pp pp pp
-3.6084594535137349e-03 4.0436084594534716e+00
-3.6084594535137349e-03 4.0436084594534716e+00
-3.6084594535137349e-03 4.0436084594534716e+00
ITEM: ATOMS id type xu yu zu 
1 1 -0.0111441 0.0397869 0.0516556 
2 1 1.99339 2.07262 -0.0519163 
3 1 2.02801 -0.0566767 2.03384 
4 1 0.0225217 1.97705 1.9992 
ITEM: TIMESTEP
7000
ITEM: NUMBER OF ATOMS
4
ITEM: BOX BOUNDS pp pp pp
-6.4232190770052711e-03 4.0464232190769422e+00
-6.4232190770052711e-03 4.0464232190769422e+00
-6.4232190770052711e-03 4.0464232190769422e+00
ITEM: ATOMS id type xu yu zu 
1 1 -0.0223069 -0.0761596 -0.093204 
2 1 1.94187 1.9662 0.117491 
3 1 2.03711 0.0462902 1.95637 
4 1 0.0704838 2.09082 2.0465 
ITEM: TIMESTEP
7500
ITEM: NUMBER OF ATOMS
4
ITEM: BOX BOUNDS pp pp pp
-1.9320680209613528e-02 4.0593206802095505e+00
-1.9320680209613528e-02 4.0593206802095505e+00
-1.9320680209613528e-02 4.0593206802095505e+00
ITEM: ATOMS id type xu yu zu 
1 1 -0.100256 0.0386178 -0.0248738 
2 1 2.01038 1.9954 -0.00326001 
3 1 2.108 -0.00350247 2.05505 
4 1 -0.0167636 1.97085 1.97444 
ITEM: TIMESTEP
8000
ITEM: NUMBER OF ATOMS
4
ITEM: BOX BOUNDS pp pp pp
-1.4168893247963332e-02 4.0541688932478994e+00
-1.4168893247963332e-02 4.0541688932478994e+00
-1.4168893247963332e-02 4.0541688932478994e+00
ITEM: ATOMS id type xu yu zu 
1 1 0.00111596 0.0541236 0.0658988 
2 1 1.9501 2.07588 -0.0256031 
3 1 2.01441 -0.0828889 2.06979 
4 1 0.0460348 1.96454 1.90158 
ITEM: TIMESTEP
8500
ITEM: NUMBER OF ATOMS
4
ITEM: BOX BOUNDS pp pp pp
1.4494176969544803e-02 4.0255058230303771e+00
1.4494176969544803e-02 4.0255058230303771e+00
1.4494176969544803e-02 4.0255058230303771e+00
ITEM: ATOMS id type xu yu zu 
1 1 0.0392497 -0.0106014 -0.000353975 
2 1 2.0295 1.92985 0.0621178 
3 1 2.0012 0.0959824 1.90552 
4 1 -0.000959389 2.05376 2.10171 
ITEM: TIMESTEP
9000
ITEM: NUMBER OF ATOMS
4
ITEM: BOX BOUNDS pp pp pp
-3.0744981128508986e-02 4.0707449811284295e+00
-3.0744981128508986e-02 4.0707449811284295e+00
-3.0744981128508986e-02 4.0707449811284295e+00
ITEM: ATOMS id type xu yu zu 
1 1 -0.0691086 0.0476855 0.126787 
2 1 2.11316 2.00899 -0.102467 
3 1 2.07695 -0.0256131 1.90874 
4 1 -0.142485 1.94745 2.04545 
ITEM: TIMESTEP
9500
ITEM: NUMBER OF ATOMS
4
ITEM: BOX BOUNDS pp pp pp
-6.4244325478249209e-02 4.1042443254781737e+00
-6.4244325478249209e-02 4.1042443254781737e+00
-6.4244325478249209e-02 4.1042443254781737e+00
ITEM: ATOMS id type xu yu zu 
1 1 0.023793 0.0482624 0.127893 
2 1 1.96639 2.09682 -0.207027 
3 1 1.94095 -0.143768 2.01639 
4 1 -0.0196295 1.91019 1.97426 
ITEM: TIMESTEP
10000
ITEM: NUMBER OF ATOMS
4
ITEM: BOX BOUNDS pp pp pp
-3.1858979201717652e-03 4.0431858979201021e+00
-3.1858979201717652e-03 4.0431858979201021e+00
-3.1858979201717652e-03 4.0431858979201021e+00
ITEM: ATOMS id type xu yu zu 
1 1 -0.0371376 -0.0227895 -0.00163548 
2 1 2.02902 1.96552 0.0309746 
3 1 2.06344 0.0441577 1.95576 
4 1 -0.0216966 2.04674 2.04852 
ITEM: TIMESTEP
10500
ITEM: NUMBER OF ATOMS
4
ITEM: BOX BOUNDS pp pp pp
-1.1844907305040842e-02 4.0518449073049698e+00
-1.1844907305040842e-02 4.0518449073049698e+00
-1.1844907305040842e-02 4.0518449073049698e+00
ITEM: ATOMS id type xu yu zu 
1 1 -0.0396435 -0.0560639 -0.0830032 
2 1 2.00634 1.94422 0.0555873 
3 1 2.05718 0.0606062 1.99153 
4 1 -0.00756694 2.06755 2.0522 
ITEM: TIMESTEP
11000
ITEM: NUMBER OF ATOMS
4
ITEM: BOX BOUNDS pp pp pp
-2.6603241916351550e-02 4.0666032419162894e+00
-2.6603241916351550e-02 4.0666032419162894e+00
-2.6603241916351550e-02 4.0666032419162894e+00
ITEM: ATOMS id type xu yu zu 
1 1 -0.0125322 0.000384638 0.0264397 
2 1 1.95326 2.11186 -0.064789 
3 1 2.01477 -0.114876 2.15277 
4 1 0.0312928 1.98942 1.87237 
ITEM: TIMESTEP
11500
ITEM: NUMBER OF ATOMS
4
ITEM: BOX BOUNDS pp pp pp
-1.2711186873155977e-02 4.0527111868731014e+00
-1.2711186873155977e-02 4.0527111868731014e+00
-1.2711186873155977e-02 4.0527111868731014e+00
ITEM: ATOMS id type xu yu zu 
1 1 -0.095701 -0.00534014 -0.0572983 
2 1 2.03244 1.99747 -0.0533305 
3 1 2.10734 0.0159433 2.14294 
4 1 -0.029501 2.0065 1.98227 
ITEM: TIMESTEP
12000
ITEM: NUMBER OF ATOMS
4
ITEM: BOX BOUNDS pp pp pp
2.1976922907009255e-02 4.0180230770929484e+00
2.1976922907009255e-02 4.0180230770929484e+00
2.1976922907009255e-02 4.0180230770929484e+00
ITEM: ATOMS id type xu yu zu 
1 1 0.0370985 -0.0945331 -0.0429212 
2 1 2.02126 1.9503 0.0489566 
3 1 2.01067 0.0979524 1.96733 
4 1 0.0149249 2.13023 2.11059 
ITEM: TIMESTEP
12500
ITEM: NUMBER OF ATOMS
4
ITEM: BOX BOUNDS pp pp pp
-4.5497016442967109e-02 4.0854970164429139e+00
-4.5497016442967109e-02 4.0854970164429139e+00
-4.5497016442967109e-02 4.0854970164429139e+00
ITEM: ATOMS id type xu yu zu 
1 1 -0.0105518 -0.0419642 0.0810963 
2 1 2.00197 2.10927 -0.200748 
3 1 1.98778 -0.131998 2.10404 
4 1 -0.030184 2.0137 1.96461 
ITEM: TIMESTEP
13000
ITEM: NUMBER OF ATOMS
4
ITEM: BOX BOUNDS pp pp pp
-5.0486772916136680e-02 4.0904867729160852e+00
-5.0486772916136680e-02 4.0904867729160852e+00
-5.0486772916136680e-02 4.0904867729160852e+00
ITEM: ATOMS id type xu yu zu 
1 1 -0.0903276 -0.0590477 0.0342843 
2 1 2.0719 2.04569 -0.21845 
3 1 2.05829 -0.0651241 2.09266 
4 1 -0.100834 2.0175 2.03053 
ITEM: TIMESTEP
13500
ITEM: NUMBER OF ATOMS
4
ITEM: BOX BOUNDS pp pp pp
6.8513010416073605e-03 4.0331486989583372e+00
6.8513010416073605e-03 4.0331486989583372e+00
6.8513010416073605e-03 4.0331486989583372e+00
ITEM: ATOMS id type xu yu zu 
1 1 0.0504101 -0.175771 0.0060358 
2 1 1.98807 1.91899 -0.00404877 
3 1 1.97593 0.115648 1.91147 
4 1 0.039292 2.19483 2.14025 
ITEM: TIMESTEP
14000
ITEM: NUMBER OF ATOMS
4
ITEM: BOX BOUNDS pp pp pp
2.3318953745290472e-03 4.0376681046254177e+00
2.3318953745290472e-03 4.0376681046254177e+00
2.3318953745290472e-03 4.0376681046254177e+00
ITEM: ATOMS id type xu yu zu 
1 1 0.0164589 0.00522421 0.127093 
2 1 2.03213 2.04923 -0.154113 
3 1 1.99613 -0.0232631 2.09931 
4 1 -5.44615e-05 2.01347 1.97238 
ITEM: TIMESTEP
14500
ITEM: NUMBER OF ATOMS
4
ITEM: BOX BOUNDS pp pp pp
-3.7006252373743109e-02 4.0770062523736916e+00
-3.7006252373743109e-02 4.0770062523736916e+00
-3.7006252373743109e-02 4.0770062523736916e+00
ITEM: ATOMS id type xu yu zu 
1 1 -0.059604 -0.0268196 0.0334055 
2 1 2.05125 2.02357 -0.124736 
3 1 2.03526 -0.0369108 2.03254 
4 1 -0.0609244 2.00615 2.02478 
ITEM: TIMESTEP
15000
ITEM: NUMBER OF ATOMS
4
ITEM: BOX BOUNDS pp pp pp
-2.3331152089990592e-02 4.0633311520899493e+00
-2.3331152089990592e-02 4.0633311520899493e+00
-2.3331152089990592e-02 4.0633311520899493e+00
ITEM: ATOMS id type xu yu zu 
1 1 0.00207174 -0.0917152 -0.0626551 
2 1 1.98793 1.96547 0.0678501 
3 1 1.99403 0.043626 1.85815 
4 1 0.00930747 2.07595 2.12999 
ITEM: TIMESTEP
15500
ITEM: NUMBER OF ATOMS
4
ITEM: BOX BOUNDS pp pp pp
-3.4069477719156360e-03 4.0434069477718655e+00
-3.4069477719156360e-03 4.0434069477718655e+00
-3.4069477719156360e-03 4.0434069477718655e+00
ITEM: ATOMS id type xu yu zu 
1 1 -0.0525349 0.154171 0.0559334 
2 1 2.08485 2.08519 -0.0265726 
3 1 2.06861 -0.0521958 2.07191 
4 1 -0.0677318 1.84602 1.93191 
ITEM: TIMESTEP
16000
ITEM: NUMBER OF ATOMS
4
ITEM: BOX BOUNDS pp pp pp
-2.6114580084782180e-02 4.0661145800847143e+00
-2.6114580084782180e-02 4.0661145800847143e+00
-2.6114580084782180e-02 4.0661145800847143e+00
ITEM: ATOMS id type xu yu zu 
1 1 -0.0676155 -0.0250431 -0.0937682 
2 1 1.94581 2.03321 0.0765056 
3 1 2.05903 -0.0191635 2.02588 
4 1 0.0505482 1.99877 1.97915 
ITEM: TIMESTEP
16500
ITEM: NUMBER OF ATOMS
4
ITEM: BOX BOUNDS pp pp pp
-9.9497534612397409e-02 4.1394975346123459e+00
-9.9497534612397409e-02 4.1394975346123459e+00
-9.9497534612397409e-02 4.1394975346123459e+00
ITEM: ATOMS id type xu yu zu 
1 1 -0.156809 -0.171714 -0.305766 
2 1 1.8981 1.89471 0.0957793 
3 1 2.08932 0.0564884 1.92186 
4 1 0.0103866 2.06152 2.12913 
ITEM: TIMESTEP
17000
ITEM: NUMBER OF ATOMS
4
ITEM: BOX BOUNDS pp pp pp
-3.4166996566560304e-02 4.0741669965665048e+00
-3.4166996566560304e-02 4.0741669965665048e+00
-3.4166996566560304e-02 4.0741669965665048e+00
ITEM: ATOMS id type xu yu zu 
1 1 0.00319353 -0.0633223 -0.0256321 
2 1 2.02419 2.02978 0.0881309 
3 1 1.99836 -0.0284775 1.98277 
4 1 -0.054073 2.03368 1.9264 
ITEM: TIMESTEP
17500
ITEM: NUMBER OF ATOMS
4
ITEM: BOX BOUNDS pp pp pp
-1.3516590689950370e-03 4.0413516590689351e+00
-1.3516590689950370e-03 4.0413516590689351e+00
-1.3516590689950370e-03 4.0413516590689351e+00
ITEM: ATOMS id type xu yu zu 
1 1 0.0718035 0.120933 0.0135154 
2 1 2.03689 2.02557 -0.0783735 
3 1 1.94878 0.0154093 2.18224 
4 1 -0.0201724 1.87539 1.91992 
ITEM: TIMESTEP
18000
ITEM: NUMBER OF ATOMS
4
ITEM: BOX BOUNDS pp pp pp
-1.5713180428424067e-02 4.0557131804283983e+00
-1.5713180428424067e-02 4.0557131804283983e+00
-1.5713180428424067e-02 4.0557131804283983e+00
ITEM: ATOMS id type xu yu zu 
1 1 -0.0506984 -0.14616 0.0201691 
2 1 2.06902 1.92932 0.0616746 
3 1 2.03227 0.0778573 1.87339 
4 1 -0.0420136 2.14755 2.05334 
ITEM: TIMESTEP
18500
ITEM: NUMBER OF ATOMS
4
ITEM: BOX BOUNDS pp pp pp
-4.1458841198313667e-02 4.0814588411983133e+00
-4.1458841198313667e-02 4.0814588411983133e+00
-4.1458841198313667e-02 4.0814588411983133e+00
ITEM: ATOMS id type xu yu zu 
1 1 -0.0194608 0.000709598 0.0745863 
2 1 2.01474 1.90821 -0.0908846 
3 1 1.98012 0.0674147 2.06838 
4 1 -0.018314 1.98075 1.905 
ITEM: TIMESTEP
19000
ITEM: NUMBER OF ATOMS
4
ITEM: BOX BOUNDS pp pp pp
-2.6156240450270651e-02 4.0661562404502734e+00
-2.6156240450270651e-02 4.0661562404502734e+00
-2.6156240450270651e-02 4.0661562404502734e+00
ITEM: ATOMS id type xu yu zu 
1 1 -0.0242566 0.0924538 0.0225726 
2 1 2.05479 2.03095 0.0649492 
3 1 2.04784 -0.0499998 2.05019 
4 1 -0.0906893 1.91428 1.84997 
ITEM: TIMESTEP
19500
ITEM: NUMBER OF ATOMS
4
ITEM: BOX BOUNDS pp pp pp
4.0245950042253620e-02 3.9997540499577453e+00
4.0245950042253620e-02 3.9997540499577453e+00
4.0245950042253620e-02 3.9997540499577453e+00
ITEM: ATOMS id type xu yu zu 
1 1 0.0671458 0.0800499 -0.180149 
2 1 2.03183 1.93457 0.321891 
3 1 1.99023 0.133604 1.90561 
4 1 0.0312942 1.97227 2.07315 
ITEM: TIMESTEP
20000
ITEM: NUMBER OF ATOMS
4
ITEM: BOX BOUNDS pp pp pp
-9.4196033820596714e-02 4.1341960338206079e+00
-9.4196033820596714e-02 4.1341960338206079e+00
-9.4196033820596714e-02 4.1341960338206079e+00
ITEM: ATOMS id type xu yu zu 
1 1 -0.0741715 0.129137 -0.0299461 
2 1 2.10592 2.34734 0.000692692 
3 1 1.9597 -0.393041 2.19274 
4 1 -0.139841 1.76817 1.68812 
ITEM: TIMESTEP
20500
ITEM: NUMBER OF ATOMS
4
ITEM: BOX BOUNDS pp pp pp
-1.0207866270518373e-01 4.1420786627052024e+00
-1.0207866270518373e-01 4.1420786627052024e+00
-1.0207866270518373e-01 4.1420786627052024e+00
ITEM: ATOMS id type xu yu zu 
1 1 -0.084432 -0.100756 -0.00765559 
2 1 1.96225 1.92718 -0.241717 
3 1 2.00175 -0.0308371 2.10972 
4 1 -0.0437181 2.04026 1.97549 
ITEM: TIMESTEP
21000
ITEM: NUMBER OF ATOMS
4
ITEM: BOX BOUNDS pp pp pp
-2.4455462922956528e-02 4.0644554629229610e+00
-2.4455462922956528e-02 4.0644554629229610e+00
-2.4455462922956528e-02 4.0644554629229610e+00
ITEM: ATOMS id type xu yu zu 
1 1 -0.0567788 -0.0571048 -0.142746 
2 1 2.05617 1.8379 -0.0337709 
3 1 2.03459 0.121842 1.85303 
4 1 -0.0429009 2.08845 2.31457 
ITEM: TIMESTEP
21500
ITEM: NUMBER OF ATOMS
4
ITEM: BOX BOUNDS pp pp pp
-1.7254279146076801e-02 4.0572542791460933e+00
-1.7254279146076801e-02 4.0572542791460933e+00
-1.7254279146076801e-02 4.0572542791460933e+00
ITEM: ATOMS id type xu yu zu 
1 1 0.0205824 0.0898939 0.105711 
2 1 2.03062 2.17035 -0.0702413 
3 1 1.99653 -0.0922953 2.02275 
4 1 -0.0422417 1.83754 1.94727 
ITEM: TIMESTEP
22000
ITEM: NUMBER OF ATOMS
4
ITEM: BOX BOUNDS pp pp pp
-4.8298918046716821e-02 4.0882989180467488e+00
-4.8298918046716821e-02 4.0882989180467488e+00
-4.8298918046716821e-02 4.0882989180467488e+00
ITEM: ATOMS id type xu yu zu 
1 1 -0.211238 -0.0948598 0.161591 
2 1 1.9604 1.91202 -0.0583432 
3 1 2.09986 0.0805838 1.95946 
4 1 0.0943816 2.04566 1.88069 
ITEM: TIMESTEP
22500
ITEM: NUMBER OF ATOMS
4
ITEM: BOX BOUNDS pp pp pp
-8.9896989571377262e-02 4.1298969895714217e+00
-8.9896989571377262e-02 4.1298969895714217e+00
-8.9896989571377262e-02 4.1298969895714217e+00
ITEM: ATOMS id type xu yu zu 
1 1 -0.124768 -0.0760056 -0.240157 
2 1 1.97828 1.71598 0.108329 
3 1 2.0524 0.112593 1.9556 
4 1 -0.0457107 2.10764 2.03643 
ITEM: TIMESTEP
23000
ITEM: NUMBER OF ATOMS
4
ITEM: BOX BOUNDS pp pp pp
-5.7438524320322148e-02 4.0974385243203759e+00
-5.7438524320322148e-02 4.0974385243203759e+00
-5.7438524320322148e-02 4.0974385243203759e+00
ITEM: ATOMS id type xu yu zu 
1 1 -0.0836983 0.0825635 0.0140032 
2 1 2.04219 2.14839 0.0208066 
3 1 2.07384 -0.174915 1.87286 
4 1 -0.107209 1.86908 2.01746 
ITEM: TIMESTEP
23500
ITEM: NUMBER OF ATOMS
4
ITEM: BOX BOUNDS pp pp pp
4.9248847445948485e-03 4.0350751152554407e+00
4.9248847445948485e-03 4.0350751152554407e+00
4.9248847445948485e-03 4.0350751152554407e+00
ITEM: ATOMS id type xu yu zu 
1 1 -0.105721 0.0366012 0.279315 
2 1 1.98809 2.04105 -0.189154 
3 1 2.09104 0.0218213 2.03933 
4 1 0.0764369 1.95038 1.92036 
ITEM: TIMESTEP
24000
ITEM: NUMBER OF ATOMS
4
ITEM: BOX BOUNDS pp pp pp
-1.1620346971589868e-02 4.0516203469716281e+00
-1.1620346971589868e-02 4.0516203469716281e+00
-1.1620346971589868e-02 4.0516203469716281e+00
ITEM: ATOMS id type xu yu zu 
1 1 -0.0459317 0.0867593 0.121124 
2 1 1.97253 2.12749 -0.039779 
3 1 2.1001 -0.129741 1.9555 
4 1 -0.00993843 1.93225 1.97992 
ITEM: TIMESTEP
24500
ITEM: NUMBER OF ATOMS
4
ITEM: BOX BOUNDS pp pp pp
-1.0826265815727476e-01 4.1482626581573250e+00
-1.0826265815727476e-01 4.1482626581573250e+00
-1.0826265815727476e-01 4.1482626581573250e+00
ITEM: ATOMS id type xu yu zu 
1 1 -0.113488 -0.0531068 -0.329955 
2 1 2.08592 2.05769 0.0217137 
3 1 1.89252 -0.0505583 1.99943 
4 1 -0.0414751 1.86945 2.13229 
ITEM: TIMESTEP
25000
ITEM: NUMBER OF ATOMS
4
ITEM: BOX BOUNDS pp pp pp
-6.4596905846472819e-02 4.1045969058465062e+00
-6.4596905846472819e-02 4.1045969058465062e+00
-6.4596905846472819e-02 4.1045969058465062e+00
ITEM: ATOMS id type xu yu zu 
1 1 -0.104468 -0.223091 -0.168454 
2 1 2.0054 1.91592 0.00518023 
3 1 2.10861 0.0212373 1.93462 
4 1 -0.0987365 2.19674 2.13946 
ITEM: TIMESTEP
25500
ITEM: NUMBER OF ATOMS
4
ITEM: BOX BOUNDS pp pp pp
-2.3109183341792239e-02 4.0631091833418065e+00
-2.3109183341792239e-02 4.0631091833418065e+00
-2.3109183341792239e-02 4.0631091833418065e+00
ITEM: ATOMS id type xu yu zu 
1 1 0.0006402 0.0386382 0.152752 
2 1 1.95312 2.13161 -0.203199 
3 1 1.96328 -0.186312 2.02341 
4 1 0.0767435 2.00984 2.02082 
ITEM: TIMESTEP
26000
ITEM: NUMBER OF ATOMS
4
ITEM: BOX BOUNDS pp pp pp
-3.0361460889189562e-02 4.0703614608892131e+00
-3.0361460889189562e-02 4.0703614608892131e+00
-3.0361460889189562e-02 4.0703614608892131e+00
ITEM: ATOMS id type xu yu zu 
1 1 0.0592439 -0.034847 -0.0100563 
2 1 2.13287 1.99389 -0.132815 
3 1 2.00104 0.0288315 1.97683 
4 1 -0.213882 1.9914 2.14532 
ITEM: TIMESTEP
26500
ITEM: NUMBER OF ATOMS
4
ITEM: BOX BOUNDS pp pp pp
-8.3810575590426595e-02 4.1238105755904559e+00
-8.3810575590426595e-02 4.1238105755904559e+00
-8.3810575590426595e-02 4.1238105755904559e+00
ITEM: ATOMS id type xu yu zu 
1 1 -0.00581507 -0.339158 -0.146102 
2 1 1.95028 1.99537 -0.0765947 
3 1 2.00022 0.153358 1.68452 
4 1 -0.072312 2.06281 2.41056 
ITEM: TIMESTEP
27000
ITEM: NUMBER OF ATOMS
4
ITEM: BOX BOUNDS pp pp pp
-1.4930886377909625e-01 4.1893088637791198e+00
-1.4930886377909625e-01 4.1893088637791198e+00
-1.4930886377909625e-01 4.1893088637791198e+00
ITEM: ATOMS id type xu yu zu 
1 1 -0.140261 -0.157021 -0.095414 
2 1 1.9765 1.81335 -0.215127 
3 1 2.10255 -0.233229 2.1021 
4 1 -0.197404 2.31828 1.94982 
ITEM: TIMESTEP
27500
ITEM: NUMBER OF ATOMS
4
ITEM: BOX BOUNDS pp pp pp
-3.5564354123756026e-02 4.0755643541237774e+00
-3.5564354123756026e-02 4.0755643541237774e+00
-3.5564354123756026e-02 4.0755643541237774e+00
ITEM: ATOMS id type xu yu zu 
1 1 -0.167422 0.233537 0.0168205 
2 1 2.19021 2.12337 -0.136597 
3 1 2.04661 -0.380222 2.27355 
4 1 -0.100528 1.99218 1.8151 
ITEM: TIMESTEP
28000
ITEM: NUMBER OF ATOMS
4
ITEM: BOX BOUNDS pp pp pp
7.7580551403286124e-02 3.9624194485967417e+00
7.7580551403286124e-02 3.9624194485967417e+00
7.7580551403286124e-02 3.9624194485967417e+00
ITEM: ATOMS id type xu yu zu 
1 1 0.0585994 0.0846407 0.115902 
2 1 1.97506 2.0237 -0.00390046 
3 1 1.99536 0.029564 1.96872 
4 1 0.166149 2.05726 2.11443 
ITEM: TIMESTEP
28500
ITEM: NUMBER OF ATOMS
4
ITEM: BOX BOUNDS pp pp pp
4.7934652159895563e-03 4.0352065347840247e+00
4.7934652159895563e-03 4.0352065347840247e+00
4.7934652159895563e-03 4.0352065347840247e+00
ITEM: ATOMS id type xu yu zu 
1 1 -0.182973 0.192419 0.052479 
2 1 1.8243 1.8446 -0.0869203 
3 1 2.17343 -0.0654043 2.00957 
4 1 0.234833 2.07798 2.07446 
ITEM: TIMESTEP
29000
ITEM: NUMBER OF ATOMS
4
ITEM: BOX BOUNDS pp pp pp
-6.8156354829399302e-02 4.1081563548294007e+00
-6.8156354829399302e-02 4.1081563548294007e+00
-6.8156354829399302e-02 4.1081563548294007e+00
ITEM: ATOMS id type xu yu zu 
1 1 -0.166681 -0.106996 0.282088 
2 1 1.99192 2.15506 -0.306579 
3 1 2.06279 -0.203693 1.85257 
4 1 0.0156521 2.05931 2.07561 
ITEM: TIMESTEP
29500
ITEM: NUMBER OF ATOMS
4
ITEM: BOX BOUNDS pp pp pp
-7.8345887583278095e-02 4.1183458875832937e+00
-7.8345887583278095e-02 4.1183458875832937e+00
-7.8345887583278095e-02 4.1183458875832937e+00
ITEM: ATOMS id type xu yu zu 
1 1 0.186923 0.0318664 -0.065035 
2 1 2.07975 2.15182 -0.0803411 
3 1 1.85072 -0.307528 2.07824 
4 1 -0.234083 2.00715 1.95045 
ITEM: TIMESTEP
30000
ITEM: NUMBER OF ATOMS
4
ITEM: BOX BOUNDS pp pp pp
-7.7366207432330025e-02 4.1173662074323598e+00
-7.7366207432330025e-02 4.1173662074323598e+00
-7.7366207432330025e-02 4.1173662074323598e+00
ITEM: ATOMS id type xu yu zu 
1 1 -0.156716 -0.0481894 -0.159902 
2 1 1.87434 2.2705 0.00666397 
3 1 2.0151 -0.100822 2.29204 
4 1 0.152538 1.76378 1.74647 
ITEM: TIMESTEP
30500
ITEM: NUMBER OF ATOMS
4
ITEM: BOX BOUNDS pp pp pp
-9.1834923010257974e-02 4.1318349230102838e+00
-9.1834923010257974e-02 4.1318349230102838e+00
-9.1834923010257974e-02 4.1318349230102838e+00
ITEM: ATOMS id type xu yu zu 
1 1 -0.173637 -0.133584 -0.0498813 
2 1 1.86179 1.9885 -0.00111393 
3 1 2.24338 0.0491332 2.13116 
4 1 -0.0752002 1.95228 1.77617 
ITEM: TIMESTEP
31000
ITEM: NUMBER OF ATOMS
4
ITEM: BOX BOUNDS pp pp pp
-2.7826212345551049e-02 4.0678262123455795e+00
-2.7826212345551049e-02 4.0678262123455795e+00
-2.7826212345551049e-02 4.0678262123455795e+00
ITEM: ATOMS id type xu yu zu 
1 1 0.114092 0.0734555 0.0301227 
2 1 1.87019 1.85197 -0.139501 
3 1 2.0927 -0.187702 1.73454 
4 1 -0.0926381 2.24662 2.35919 
ITEM: TIMESTEP
31500
ITEM: NUMBER OF ATOMS
4
ITEM: BOX BOUNDS pp pp pp
8.4040990276235128e-03 4.0315959009724214e+00
8.4040990276235128e-03 4.0315959009724214e+00
8.4040990276235128e-03 4.0315959009724214e+00
ITEM: ATOMS id type xu yu zu 
1 1 -0.0158669 0.0417372 -0.103231 
2 1 2.04361 2.02944 0.0579338 
3 1 1.95547 -0.0671964 2.34788 
4 1 0.0735934 2.05283 1.75423 
ITEM: TIMESTEP
32000
ITEM: NUMBER OF ATOMS
4
ITEM: BOX BOUNDS pp pp pp
-1.4031629865531370e-01 4.1803162986553914e+00
-1.4031629865531370e-01 4.1803162986553914e+00
-1.4031629865531370e-01 4.1803162986553914e+00
ITEM: ATOMS id type xu yu zu 
1 1 -0.304799 -0.199984 -0.12116 
2 1 2.23252 2.25936 -0.178468 
3 1 1.99137 -0.0830846 1.872 
4 1 -0.159724 1.78307 2.187 
ITEM: TIMESTEP
32500
ITEM: NUMBER OF ATOMS
4
ITEM: BOX BOUNDS pp pp pp
-1.3521824281125250e-01 4.1752182428113214e+00
-1.3521824281125250e-01 4.1752182428113214e+00
-1.3521824281125250e-01 4.1752182428113214e+00
ITEM: ATOMS id type xu yu zu 
1 1 -0.250404 -0.0805765 -0.464423 
2 1 1.99582 1.99753 -0.100328 
3 1 2.01209 -0.172336 1.66479 
4 1 0.0120612 2.02495 2.66953 
ITEM: TIMESTEP
33000
ITEM: NUMBER OF ATOMS
4
ITEM: BOX BOUNDS pp pp pp
-5.2536612426750118e-02 4.0925366124268292e+00
-5.2536612426750118e-02 4.0925366124268292e+00
-5.2536612426750118e-02 4.0925366124268292e+00
ITEM: ATOMS id type xu yu zu 
1 1 -0.0505941 -0.0800345 -0.00705429 
2 1 1.87033 1.98614 -0.173176 
3 1 2.20508 0.110018 1.9839 
4 1 -0.0898873 1.91881 2.13125 
ITEM: TIMESTEP
33500
ITEM: NUMBER OF ATOMS
4
ITEM: BOX BOUNDS pp pp pp
-3.9808415528548746e-02 4.0798084155286247e+00
-3.9808415528548746e-02 4.0798084155286247e+00
-3.9808415528548746e-02 4.0798084155286247e+00
ITEM: ATOMS id type xu yu zu 
1 1 -0.0642428 0.170222 0.0208179 
2 1 2.05778 1.93086 -0.0604174 
3 1 2.03248 -0.147999 2.21881 
4 1 -0.0656375 2.0073 1.78117 
ITEM: TIMESTEP
34000
ITEM: NUMBER OF ATOMS
4
ITEM: BOX BOUNDS pp pp pp
-5.7462624872867352e-02 4.0974626248729482e+00
-5.7462624872867352e-02 4.0974626248729482e+00
-5.7462624872867352e-02 4.0974626248729482e+00
ITEM: ATOMS id type xu yu zu 
1 1 0.208327 -0.0821249 0.118833 
2 1 2.19621 2.39489 -0.188725 
3 1 1.76539 -0.175978 2.07975 
4 1 -0.244854 1.78829 1.91521 
ITEM: TIMESTEP
34500
ITEM: NUMBER OF ATOMS
4
ITEM: BOX BOUNDS pp pp pp
5.8780274717286529e-02 3.9812197252827879e+00
5.8780274717286529e-02 3.9812197252827879e+00
5.8780274717286529e-02 3.9812197252827879e+00
ITEM: ATOMS id type xu yu zu 
1 1 0.171986 0.0694566 0.0953441 
2 1 1.93404 2.0336 -0.0679464 
3 1 2.05786 0.0989034 1.92002 
4 1 -0.00632028 1.9556 2.21014 
ITEM: TIMESTEP
35000
ITEM: NUMBER OF ATOMS
4
ITEM: BOX BOUNDS pp pp pp
-1.7509998899575541e-01 4.2150999889958563e+00
-1.7509998899575541e-01 4.2150999889958563e+00
-1.7509998899575541e-01 4.2150999889958563e+00
ITEM: ATOMS id type xu yu zu 
1 1 -0.0202237 -0.617644 -0.563061 
2 1 2.16024 2.16574 0.0559292 
3 1 1.81641 0.35288 2.41868 
4 1 -0.266626 1.78882 1.77825 
ITEM: TIMESTEP
35500
ITEM: NUMBER OF ATOMS
4
ITEM: BOX BOUNDS pp pp pp
-4.0827129026877351e-02 4.0808271290269680e+00
-4.0827129026877351e-02 4.0808271290269680e+00
-4.0827129026877351e-02 4.0808271290269680e+00
ITEM: ATOMS id type xu yu zu 
1 1 -0.0928271 -0.056765 -0.0979449 
2 1 1.95646 2.32361 0.25729 
3 1 2.13033 0.10388 2.12639 
4 1 -0.0356266 1.58762 1.67261 
ITEM: TIMESTEP
36000
ITEM: NUMBER OF ATOMS
4
ITEM: BOX BOUNDS pp pp pp
-4.2234727394018012e-02 4.0822347273941206e+00
-4.2234727394018012e-02 4.0822347273941206e+00
-4.2234727394018012e-02 4.0822347273941206e+00
ITEM: ATOMS id type xu yu zu 
1 1 0.0215034 0.142828 0.0563184 
2 1 1.97697 2.14373 -0.147097 
3 1 2.11586 -0.298069 2.05466 
4 1 -0.158798 1.96704 1.99165 
ITEM: TIMESTEP
36500
ITEM: NUMBER OF ATOMS
4
ITEM: BOX BOUNDS pp pp pp
-8.3448083406060025e-02 4.1234480834061706e+00
-8.3448083406060025e-02 4.1234480834061706e+00
-8.3448083406060025e-02 4.1234480834061706e+00
ITEM: ATOMS id type xu yu zu 
1 1 -0.323187 0.0518301 -0.521002 
2 1 1.95975 1.89947 0.157019 
3 1 2.08263 -0.30093 2.21729 
4 1 0.153909 2.22274 2.0198 
ITEM: TIMESTEP
37000
ITEM: NUMBER OF ATOMS
4
ITEM: BOX BOUNDS pp pp pp
-7.8078500394207051e-02 4.1180785003943070e+00
-7.8078500394207051e-02 4.1180785003943070e+00
-7.8078500394207051e-02 4.1180785003943070e+00
ITEM: ATOMS id type xu yu zu 
1 1 -0.330451 -0.135712 -0.259582 
2 1 2.06154 1.92212 0.0716626 
3 1 2.0004 0.0904505 2.20399 
4 1 0.152354 2.00698 1.86777 
ITEM: TIMESTEP
37500
ITEM: NUMBER OF ATOMS
4
ITEM: BOX BOUNDS pp pp pp
-2.0082829803683921e-02 4.0600828298037674e+00
-2.0082829803683921e-02 4.0600828298037674e+00
-2.0082829803683921e-02 4.0600828298037674e+00
ITEM: ATOMS id type xu yu zu 
1 1 -0.234992 -0.0417868 -0.249579 
2 1 1.99068 1.98402 0.230489 
3 1 1.98351 -0.0640664 1.98558 
4 1 0.260642 2.12167 2.03334 
ITEM: TIMESTEP
38000
ITEM: NUMBER OF ATOMS
4
ITEM: BOX BOUNDS pp pp pp
-2.2230394151427024e-02 4.0622303941515039e+00
-2.2230394151427024e-02 4.0622303941515039e+00
-2.2230394151427024e-02 4.0622303941515039e+00
ITEM: ATOMS id type xu yu zu 
1 1 0.258827 0.00797504 0.374085 
2 1 1.90317 2.07934 -0.248521 
3 1 2.13604 0.0136143 2.01126 
4 1 -0.302498 1.89461 1.85871 
ITEM: TIMESTEP
38500
ITEM: NUMBER OF ATOMS
4
ITEM: BOX BOUNDS pp pp pp
1.8428976373818351e-02 4.0215710236262581e+00
1.8428976373818351e-02 4.0215710236262581e+00
1.8428976373818351e-02 4.0215710236262581e+00
ITEM: ATOMS id type xu yu zu 
1 1 -0.0495096 -0.0148176 0.170459 
2 1 2.23235 1.86264 -0.0303259 
3 1 1.86168 0.0943977 1.72869 
4 1 0.0323394 2.13464 2.20803 
ITEM: TIMESTEP
39000
ITEM: NUMBER OF ATOMS
4
ITEM: BOX BOUNDS pp pp pp
-2.0333379648858507e-02 4.0603333796489389e+00
-2.0333379648858507e-02 4.0603333796489389e+00
-2.0333379648858507e-02 4.0603333796489389e+00
ITEM: ATOMS id type xu yu zu 
1 1 0.118223 0.0105808 0.355595 
2 1 2.03121 2.02189 -0.292353 
3 1 2.07028 0.0943778 1.88452 
4 1 -0.220371 1.87248 2.05158 
ITEM: TIMESTEP
39500
ITEM: NUMBER OF ATOMS
4
ITEM: BOX BOUNDS pp pp pp
-1.1232468874914403e-01 4.1523246887492160e+00
-1.1232468874914403e-01 4.1523246887492160e+00
-1.1232468874914403e-01 4.1523246887492160e+00
ITEM: ATOMS id type xu yu zu 
1 1 0.122434 -0.244096 -0.00311199 
2 1 2.12024 2.19486 -0.31881 
3 1 1.71866 -0.207952 2.10052 
4 1 -0.145979 2.07254 2.03675 
ITEM: TIMESTEP
40000
ITEM: NUMBER OF ATOMS
4
ITEM: BOX BOUNDS pp pp pp
-8.3158527924025005e-02 4.1231585279240850e+00
-8.3158527924025005e-02 4.1231585279240850e+00
-8.3158527924025005e-02 4.1231585279240850e+00
ITEM: ATOMS id type xu yu zu 
1 1 -0.181489 -0.0596472 -0.30923 
2 1 2.19262 1.92835 0.115946 
3 1 1.96099 -0.212329 2.14024 
4 1 -0.0984434 2.21731 1.92673 
ITEM: TIMESTEP
40500
ITEM: NUMBER OF ATOMS
4
ITEM: BOX BOUNDS pp pp pp