ITEM: TIMESTEP
100
ITEM: NUMBER OF ATOMS
42
ITEM: BOX BOUNDS pp pp pp
3.4045658147181967e-02 3.6334293352310297e+01
3.4045658147181967e-02 3.6334293352310297e+01
3.4045658147181967e-02 3.6334293352310297e+01
ITEM: ATOMS id type x y z 
1 2 9.95764 28.5906 13.1441 
2 1 24.8843 24.7297 14.901 
3 1 36.0831 32.4571 22.8443 
4 1 12.8021 18.0604 17.8847 
5 1 27.3863 27.0042 28.6766 
6 1 4.6156 30.1028 16.9504 
7 1 19.6451 36.1356 5.75955 
8 1 18.5209 5.64566 8.51494 
9 2 1.92218 22.9725 19.9351 
10 1 13.4856 18.3374 3.73767 
11 2 14.0153 5.09949 12.0658 
12 1 10.3287 26.5619 4.35439 
13 1 29.366 29.3772 14.6352 
14 2 8.20313 28.5669 1.93578 
15 1 5.71765 25.7801 18.391 
16 1 7.88114 20.931 3.18481 
17 1 1.80669 17.1326 23.8308 
18 2 9.92248 33.6071 34.4425 
19 2 5.0145 2.32878 29.3235 
20 1 21.4061 16.1436 33.728 
21 2 5.35131 25.7515 35.755 
22 1 15.0918 20.4782 4.41078 
23 2 7.02071 19.528 0.854408 
24 2 17.425 22.0325 11.8807 
25 1 3.21665 20.8063 26.3623 
26 2 10.1919 25.7382 22.1364 
27 1 30.2949 4.32417 16.074 
28 2 11.7232 0.0575387 32.1269 
29 1 32.1076 11.1947 21.7053 
30 1 33.2459 18.7189 31.2658 
31 2 29.0413 2.11638 29.9948 
32 2 2.6314 0.640646 27.2563 
33 1 32.3772 11.2032 13.5268 
34 1 32 13.1656 22.1925 
35 1 18.9396 2.23426 2.70885 
36 2 20.6389 0.927641 35.3534 
37 1 2.87399 25.3865 0.449478 
38 2 1.47276 19.3559 25.1054 
39 2 8.82484 12.525 10.13 
40 2 26.9758 1.21872 34.7776 
41 1 12.5432 3.65242 10.8351 
42 2 11.8656 12.641 10.9268 
ITEM: TIMESTEP
200
ITEM: NUMBER OF ATOMS
42
ITEM: BOX BOUNDS pp pp pp
2.5810809277496460e-01 3.6110230917682550e+01
2.5810809277496460e-01 3.6110230917682550e+01
2.5810809277496460e-01 3.6110230917682550e+01
ITEM: ATOMS id type x y z 
1 2 10.2071 28.5882 13.1525 
2 1 24.9844 24.2397 14.8559 
3 1 36.0078 32.2867 23.1604 
4 1 12.8126 17.914 17.6808 
5 1 27.0538 27.046 28.8675 
6 1 5.05983 28.4136 17.3203 
7 1 18.9336 1.2662 4.08791 
8 1 17.5375 5.62179 9.34252 
9 2 2.20127 22.9953 19.9427 
10 1 13.6416 18.5746 4.03886 
11 2 14.3284 5.40762 12.1045 
12 1 10.2283 26.8293 4.14656 
13 1 29.1415 29.0815 14.2965 
14 2 8.14576 28.1532 1.89829 
15 1 5.70959 26.7885 18.5542 
16 1 7.85085 20.719 3.37329 
17 1 2.2761 16.5925 23.4947 
18 2 10.3778 33.7935 34.0152 
19 2 4.9909 2.45476 28.9962 
20 1 21.3151 16.0275 33.2608 
21 2 5.80757 25.8698 35.8861 
22 1 14.8191 20.3539 4.33125 
23 2 7.04608 19.5102 1.06361 
24 2 17.5303 21.9327 11.9545 
25 1 4.11233 20.7113 26.7038 
26 2 10.1844 25.5765 21.9099 
27 1 30.252 4.36716 16.3419 
28 2 11.4008 35.663 32.1985 
29 1 31.9293 11.0553 21.8109 
30 1 32.9027 18.676 30.9013 
31 2 29.2395 2.58913 29.1936 
32 2 3.04817 0.91909 27.4459 
33 1 32.1388 11.3429 13.569 
34 1 31.8092 13.614 21.7728 
35 1 20.4629 0.240024 2.12894 
36 2 20.4122 1.29383 35.5798 
37 1 2.79206 25.5819 0.692265 
38 2 1.48889 19.3404 24.9027 
39 2 8.91325 12.6677 10.2882 
40 2 26.4846 1.38997 35.2333 
41 1 12.2003 3.13887 10.6125 
42 2 12.0294 12.7193 11.0779 
ITEM: TIMESTEP
300
ITEM: NUMBER OF ATOMS
42
ITEM: BOX BOUNDS pp pp pp
3.3108159049829311e-01 3.6037257419959232e+01
3.3108159049829311e-01 3.6037257419959232e+01
3.3108159049829311e-01 3.6037257419959232e+01
ITEM: ATOMS id type x y z 
1 2 10.3457 28.6321 13.1323 
2 1 25.0823 23.9353 14.8108 
3 1 36.0248 32.2176 23.381 
4 1 12.7961 17.8138 17.5407 
5 1 26.8677 27.1131 29.0434 
6 1 4.95972 28.0197 17.2317 
7 1 19.2528 1.47196 2.10361 
8 1 16.5826 5.44187 9.99191 
9 2 2.56383 23.2431 19.9083 
10 1 13.6143 18.5805 4.13752 
11 2 14.4437 5.43849 11.9969 
12 1 10.192 26.7086 4.0676 
13 1 29.0374 28.9289 14.0504 
14 2 7.95935 27.9311 1.69182 
15 1 5.71286 25.3651 20.1244 
16 1 7.87456 20.6904 3.69724 
17 1 2.55326 16.7448 23.6368 
18 2 10.3884 33.4864 34.2882 
19 2 5.22577 2.73437 29.0732 
20 1 21.2673 15.9395 33.0108 
21 2 6.10731 25.9948 0.455717 
22 1 14.7335 20.4352 4.2599 
23 2 6.99228 19.519 1.07924 
24 2 17.5986 21.8816 11.9771 
25 1 3.74733 20.0353 26.2568 
26 2 9.94303 25.5321 21.6421 
27 1 30.276 4.33566 16.515 
28 2 11.4249 35.7471 31.835 
29 1 31.8622 10.9831 22.046 
30 1 32.7351 18.6492 30.7104 
31 2 29.4013 2.83151 28.7464 
32 2 2.94114 0.777663 27.3588 
33 1 32.0387 11.4074 13.5773 
34 1 31.7467 13.844 21.3569 
35 1 20.8157 34.9956 2.65239 
36 2 20.3072 1.50518 35.7725 
37 1 2.99863 25.8559 0.614973 
38 2 1.58724 19.3671 24.8416 
39 2 8.86914 12.738 10.3442 
40 2 26.1512 1.44137 35.5716 
41 1 12.6906 3.4558 10.905 
42 2 12.1733 12.7604 11.164 
ITEM: TIMESTEP
400
ITEM: NUMBER OF ATOMS
42
ITEM: BOX BOUNDS pp pp pp
4.5001444753055964e-01 3.5918324562926976e+01
4.5001444753055964e-01 3.5918324562926976e+01
4.5001444753055964e-01 3.5918324562926976e+01
ITEM: ATOMS id type x y z 
1 2 10.4923 28.6367 13.1286 
2 1 25.1443 23.6576 14.7828 
3 1 0.527474 32.1358 23.5728 
4 1 12.7991 17.7294 17.4232 
5 1 26.6813 27.1421 29.1592 
6 1 5.1603 25.6715 19.0591 
7 1 18.2083 0.945504 4.14281 
8 1 17.2077 5.28675 9.15868 
9 2 3.22552 23.6996 19.8497 
10 1 13.5612 18.497 4.27349 
11 2 14.338 5.55177 12.2363 
12 1 9.98204 26.2629 3.9388 
13 1 28.9137 28.764 13.8535 
14 2 8.19321 28.1986 1.79207 
15 1 6.01541 24.6261 20.6802 
16 1 7.85726 20.545 3.81728 
17 1 3.01054 17.1954 24.0109 
18 2 10.4269 33.2045 34.411 
19 2 5.35366 2.92493 29.0228 
20 1 21.2167 15.8715 32.7504 
21 2 6.05917 25.6197 0.625849 
22 1 14.7163 20.5845 4.23605 
23 2 6.98881 19.581 1.17941 
24 2 17.6588 21.8262 12.016 
25 1 4.28948 19.4168 26.1568 
26 2 9.36125 25.4563 21.2513 
27 1 30.258 4.35271 16.6681 
28 2 11.4526 35.702 31.5599 
29 1 31.7538 11.0954 22.2521 
30 1 32.5459 18.6248 30.5078 
31 2 29.5064 3.08818 28.326 
32 2 3.00592 0.806912 27.3315 
33 1 31.9093 11.4839 13.599 
34 1 31.658 13.9028 20.9741 
35 1 20.2388 35.6523 2.24526 
36 2 20.8481 1.57977 35.3776 
37 1 3.43085 26.1662 0.756456 
38 2 1.55352 19.355 24.641 
39 2 9.0319 12.8165 10.4593 
40 2 25.5933 1.53616 35.8153 
41 1 12.9222 3.46685 10.8653 
42 2 12.1395 12.8274 11.2155 
ITEM: TIMESTEP
500
ITEM: NUMBER OF ATOMS
42
ITEM: BOX BOUNDS pp pp pp
4.1354455262231582e-01 3.5954794457835234e+01
4.1354455262231582e-01 3.5954794457835234e+01
4.1354455262231582e-01 3.5954794457835234e+01
ITEM: ATOMS id type x y z 
1 2 10.5745 28.7351 13.0794 
2 1 25.2708 23.4208 14.7235 
3 1 0.697022 32.3642 23.9879 
4 1 12.7539 17.6383 17.2952 
5 1 26.5655 27.2522 29.3769 
6 1 6.66747 25.6216 19.1996 
7 1 18.1334 35.5712 5.01272 
8 1 15.4885 4.76724 10.1503 
9 2 3.3432 23.8779 19.9099 
10 1 13.4691 18.3987 4.30886 
11 2 14.5504 5.62849 12.2065 
12 1 9.70446 25.9437 3.68801 
13 1 28.8823 28.6888 13.6118 
14 2 8.2311 28.5324 1.68443 
15 1 7.33102 22.478 23.8181 
16 1 7.6792 20.471 3.61316 
17 1 4.21 16.4371 24.0641 
18 2 10.5511 33.4239 34.245 
19 2 5.14564 2.76863 28.9018 
20 1 21.1918 15.7807 32.6127 
21 2 6.09006 25.2619 0.683935 
22 1 14.664 20.7748 4.06646 
23 2 6.89122 19.6781 1.15656 
24 2 17.7161 21.8018 12.0009 
25 1 4.15144 18.857 25.9612 
26 2 8.64695 25.6012 20.6615 
27 1 30.3478 4.24625 16.8122 
28 2 11.2476 35.4238 31.8404 
29 1 31.7575 11.3284 22.4211 
30 1 32.4796 18.6036 30.4095 
31 2 29.7162 3.21735 27.9835 
32 2 3.15205 0.858582 27.5259 
33 1 31.899 11.5027 13.5803 
34 1 31.6937 13.7444 20.6845 
35 1 19.4664 0.977727 2.39226 
36 2 21.8369 1.54689 35.2276 
37 1 3.38628 26.8115 0.861571 
38 2 1.32878 19.5887 24.5573 
39 2 9.02389 12.849 10.4862 
40 2 24.5327 1.47858 0.651882 
41 1 13.5176 3.07784 10.0861 
42 2 12.1383 12.8675 11.2259 
ITEM: TIMESTEP
600
ITEM: NUMBER OF ATOMS
42
ITEM: BOX BOUNDS pp pp pp
3.0525505442570022e-01 3.6063083956031832e+01
3.0525505442570022e-01 3.6063083956031832e+01
3.0525505442570022e-01 3.6063083956031832e+01
ITEM: ATOMS id type x y z 
1 2 10.6372 28.8851 13.0051 
2 1 25.439 23.1765 14.6442 
3 1 1.2676 33.4107 25.1146 
4 1 12.6828 17.5347 17.1491 
5 1 26.4681 27.4097 29.6624 
6 1 4.72072 25.0988 17.6576 
7 1 18.9747 35.6886 3.88849 
8 1 15.7422 3.76258 8.44013 
9 2 3.75365 24.1521 20.0585 
10 1 13.3771 18.3164 4.3165 
11 2 14.5161 5.77106 12.5889 
12 1 8.17891 25.1528 2.41231 
13 1 28.8879 28.6447 13.3248 
14 2 8.03907 28.686 1.46853 
15 1 7.06507 20.0058 26.3687 
16 1 7.52527 20.7978 3.64889 
17 1 4.43769 16.5739 24.3025 
18 2 10.6065 33.5305 34.3625 
19 2 5.05461 2.73476 28.9386 
20 1 21.1754 15.6703 32.5139 
21 2 6.27777 25.1486 0.883914 
22 1 14.5645 20.9701 3.80268 
23 2 6.71032 19.7849 0.981884 
24 2 17.7783 21.7884 11.9605 
25 1 3.83582 19.0163 25.2391 
26 2 8.30999 25.7214 20.4742 
27 1 30.4942 4.07444 16.9679 
28 2 11.0464 35.3551 31.9774 
29 1 31.8121 11.6809 22.475 
30 1 32.4601 18.5816 30.3463 
31 2 29.9943 3.30455 27.6386 
32 2 2.97945 0.522494 27.5283 
33 1 31.9397 11.4983 13.5419 
34 1 31.7861 13.4321 20.5218 
35 1 19.7414 1.29949 2.32651 
36 2 21.6003 1.39474 34.9456 
37 1 4.56729 27.7543 1.00971 
38 2 1.33815 19.6584 24.4996 
39 2 8.87193 12.8646 10.4608 
40 2 24.3582 1.31449 1.50222 
41 1 13.4531 2.26453 9.54502 
42 2 12.2157 12.9124 11.2342 
ITEM: TIMESTEP
700
ITEM: NUMBER OF ATOMS
42
ITEM: BOX BOUNDS pp pp pp
1.3359637096424137e-01 3.6234742639493263e+01
1.3359637096424137e-01 3.6234742639493263e+01
1.3359637096424137e-01 3.6234742639493263e+01
ITEM: ATOMS id type x y z 
1 2 10.6794 29.0779 12.91 
2 1 25.64 22.9343 14.549 
3 1 1.37036 33.6923 25.7178 
4 1 12.5901 17.423 16.9912 
5 1 26.3916 27.6056 30.0009 
6 1 3.62787 24.816 16.8785 
7 1 20.2649 35.9049 2.26471 
8 1 15.6624 3.34073 7.84816 
9 2 4.47174 24.5552 20.2342 
10 1 13.3361 18.364 4.27199 
11 2 14.4747 5.4994 12.5197 
12 1 9.25523 22.7024 3.64355 
13 1 28.928 28.6316 13.0058 
14 2 7.8063 28.9573 0.972617 
15 1 4.65744 16.8266 27.7382 
16 1 7.00165 21.7901 3.07239 
17 1 4.09798 17.8246 24.8246 
18 2 10.5426 33.3673 34.9374 
19 2 4.93128 2.67405 29.0231 
20 1 21.1676 15.5454 32.4553 
21 2 6.21885 25.069 0.793125 
22 1 14.3753 21.0515 3.48611 
23 2 6.50217 20.0409 0.791952 
24 2 17.8427 21.7857 11.8978 
25 1 5.35706 19.5058 25.6669 
26 2 7.39236 25.6948 20.1573 
27 1 30.6884 3.84768 17.1285 
28 2 10.9141 35.6424 31.7817 
29 1 31.9191 12.0315 22.3508 
30 1 32.4851 18.5595 30.3183 
31 2 30.3259 3.34915 27.3042 
32 2 2.80156 0.249124 27.653 
33 1 32.0267 11.4722 13.4864 
34 1 31.9215 13.0879 20.5521 
35 1 21.9755 1.83604 1.66289 
36 2 20.81 1.1372 34.6938 
37 1 4.51427 28.5681 1.29504 
38 2 1.44313 19.6219 24.4075 
39 2 8.88243 12.8671 10.4556 
40 2 24.3253 1.07864 2.52255 
41 1 13.7073 2.69414 10.256 
42 2 12.0712 12.959 11.1709 
ITEM: TIMESTEP
800
ITEM: NUMBER OF ATOMS
42
ITEM: BOX BOUNDS pp pp pp
3.8888691854577218e-02 3.6329450318602952e+01
3.8888691854577218e-02 3.6329450318602952e+01
3.8888691854577218e-02 3.6329450318602952e+01
ITEM: ATOMS id type x y z 
1 2 10.7296 29.2054 12.8468 
2 1 25.7817 22.7324 14.4821 
3 1 0.771114 32.6335 25.1522 
4 1 12.5296 17.3367 16.8694 
5 1 26.3128 27.7389 30.2413 
6 1 3.15724 24.4153 17.706 
7 1 22.4976 36.2267 0.490175 
8 1 15.3188 3.33471 8.22184 
9 2 4.46297 24.6332 20.2432 
10 1 13.2426 18.5844 4.23023 
11 2 14.4476 5.24997 12.39 
12 1 10.3243 21.4652 3.88365 
13 1 28.9354 28.5977 12.7658 
14 2 7.65319 28.8617 0.634579 
15 1 2.21218 15.727 26.5043 
16 1 6.00663 22.8934 2.48637 
17 1 3.94792 17.9273 26.5608 
18 2 10.5381 33.4525 34.9862 
19 2 4.79466 2.58849 29.017 
20 1 21.1548 15.4529 32.3769 
21 2 6.29323 25.1447 0.992824 
22 1 13.8576 21.1354 3.33171 
23 2 6.38525 20.4801 0.656876 
24 2 17.8943 21.7755 11.8626 
25 1 5.73194 19.5252 26.6496 
26 2 7.22811 25.9009 19.7793 
27 1 30.8133 3.70114 17.2576 
28 2 10.7866 35.5559 31.9764 
29 1 31.9733 12.1487 22.5003 
30 1 32.4726 18.5413 30.269 
31 2 30.5602 3.41777 27.0199 
32 2 2.89032 0.372127 27.9603 
33 1 32.0641 11.4668 13.4532 
34 1 31.9967 13.0012 20.3138 
35 1 21.9657 3.00036 0.870555 
36 2 20.3098 0.971957 34.6531 
37 1 4.76167 27.4609 1.16524 
38 2 1.81146 19.5727 24.3635 
39 2 8.90038 12.8798 10.4668 
40 2 24.254 0.771041 3.31742 
41 1 14.2262 3.11212 10.5111 
42 2 11.9814 13.012 11.1382 
ITEM: TIMESTEP
900
ITEM: NUMBER OF ATOMS
42
ITEM: BOX BOUNDS pp pp pp
2.6369682788012838e-01 3.6104642182577393e+01
2.6369682788012838e-01 3.6104642182577393e+01
2.6369682788012838e-01 3.6104642182577393e+01
ITEM: ATOMS id type x y z 
1 2 10.8748 29.1104 12.892 
2 1 25.748 22.5425 14.4997 
3 1 1.27063 32.8976 25.4883 
4 1 12.5813 17.299 16.8182 
5 1 26.1402 27.67 30.197 
6 1 3.14796 24.1906 17.7287 
7 1 24.095 0.833086 0.715479 
8 1 15.375 3.55318 8.25943 
9 2 4.15703 24.3243 20.4105 
10 1 12.9264 18.9143 4.47799 
11 2 14.5196 5.40554 12.4799 
12 1 10.5876 19.9983 3.6873 
13 1 28.7734 28.4164 12.7075 
14 2 7.6285 28.4812 0.709214 
15 1 1.59223 16.9333 25.0826 
16 1 5.87658 22.5769 3.36315 
17 1 3.34088 17.6358 26.8659 
18 2 10.6663 33.4145 34.5317 
19 2 5.01557 2.91073 28.8992 
20 1 21.1012 15.4404 32.1107 
21 2 6.77567 24.8953 1.22741 
22 1 13.5015 21.6673 3.47087 
23 2 6.56686 20.9812 0.884819 
24 2 17.9293 21.7139 11.9396 
25 1 5.05068 19.346 26.5307 
26 2 7.79963 26.1235 19.4348 
27 1 30.6918 3.83854 17.3484 
28 2 10.8173 35.0673 32.1137 
29 1 31.7889 12.3355 22.5843 
30 1 32.244 18.525 30.0526 
31 2 30.5074 3.68704 26.7146 
32 2 2.9676 0.396321 27.7914 
33 1 31.8714 11.5675 13.5068 
34 1 31.8303 13.0061 20.0773 
35 1 21.9783 2.37586 0.476355 
36 2 20.1767 1.25445 34.5758 
37 1 4.58038 27.9649 1.45439 
38 2 2.51535 19.3056 24.5388 
39 2 8.91666 12.9639 10.5627 
40 2 23.8466 0.926305 3.67152 
41 1 14.2112 3.02634 10.6898 
42 2 12.1623 13.1289 11.2581 
ITEM: TIMESTEP
1000
ITEM: NUMBER OF ATOMS
42
ITEM: BOX BOUNDS pp pp pp
6.9218014184577470e-01 3.5676158868611751e+01
6.9218014184577470e-01 3.5676158868611751e+01
6.9218014184577470e-01 3.5676158868611751e+01
ITEM: ATOMS id type x y z 
1 2 11.0865 28.8787 12.9987 
2 1 25.606 22.3524 14.5697 
3 1 2.28756 33.663 26.1658 
4 1 12.7042 17.2968 16.8175 
5 1 25.9039 27.4749 29.9773 
6 1 3.7125 24.1294 17.4597 
7 1 24.5822 1.33052 1.0654 
8 1 15.4221 4.24726 8.77899 
9 2 4.55032 24.1802 20.4866 
10 1 12.6591 19.1759 4.72441 
11 2 14.6509 5.69789 12.5348 
12 1 10.5569 19.5267 3.69539 
13 1 28.5017 28.1382 12.7579 
14 2 7.75195 28.0299 1.04964 
15 1 1.25889 16.6553 24.6267 
16 1 6.28167 22.8204 3.76565 
17 1 2.63496 17.1815 26.6462 
18 2 10.8403 32.8769 34.3734 
19 2 5.27586 3.27363 28.6041 
20 1 21.0206 15.4762 31.7197 
21 2 7.14976 24.6225 1.70735 
22 1 13.3717 21.5455 3.7862 
23 2 6.93235 21.3501 1.35185 
24 2 17.9556 21.6184 12.088 
25 1 5.43607 19.3471 26.7527 
26 2 7.89298 25.9271 19.271 
27 1 30.4152 4.15455 17.4193 
28 2 10.9927 34.7435 31.5981 
29 1 31.4549 12.5689 22.5369 
30 1 31.8747 18.5092 29.7261 
31 2 30.2773 4.08911 26.3849 
32 2 3.25724 35.6245 27.4682 
33 1 31.5308 11.737 13.6154 
34 1 31.5072 13.0703 19.9277 
35 1 22.3552 2.54187 1.61326 
36 2 20.1518 1.63392 34.3002 
37 1 5.29548 27.2615 1.84095 
38 2 3.24841 19.3615 24.3991 
39 2 9.13797 13.1038 10.7586 
40 2 23.4068 1.37679 3.90731 
41 1 14.1469 2.9484 11.1042 
42 2 12.3098 13.2792 11.4294 
ITEM: TIMESTEP
1100
ITEM: NUMBER OF ATOMS
42
ITEM: BOX BOUNDS pp pp pp
1.1779535139984532e+00 3.5190385496459136e+01
1.1779535139984532e+00 3.5190385496459136e+01
1.1779535139984532e+00 3.5190385496459136e+01
ITEM: ATOMS id type x y z 
1 2 11.3161 28.6085 13.1149 
2 1 25.4262 22.1786 14.6579 
3 1 2.38434 32.4472 25.4757 
4 1 12.8507 17.3236 16.8571 
5 1 25.6583 27.2384 29.6955 
6 1 5.06372 24.3767 17.6206 
7 1 24.1944 1.83978 1.50215 
8 1 15.3857 5.30842 9.98238 
9 2 5.21559 24.1248 20.4433 
10 1 12.6073 19.0434 5.19652 
11 2 14.7957 5.96727 12.5227 
12 1 10.5492 20.1544 3.47185 
13 1 28.2026 27.839 12.8541 
14 2 8.11665 27.688 1.41874 
15 1 1.77552 17.2207 23.9785 
16 1 6.59186 22.8528 4.50441 
17 1 3.1443 17.5563 26.6978 
18 2 11.0394 32.3605 34.0636 
19 2 5.57719 3.66889 28.274 
20 1 20.9346 15.5313 31.3046 
21 2 7.5868 24.5918 2.17011 
22 1 12.6209 21.1623 4.05474 
23 2 7.39226 21.3325 1.88467 
24 2 17.9756 21.5156 12.2568 
25 1 5.23125 18.7629 26.7356 
26 2 7.6679 25.5068 19.1893 
27 1 30.0908 4.5259 17.475 
28 2 11.1962 34.3229 31.1233 
29 1 31.0803 12.7904 22.4519 
30 1 31.472 18.495 29.3766 
31 2 29.9851 4.51806 26.0721 
32 2 3.77314 1.30216 27.3463 
33 1 31.1512 11.9238 13.7408 
34 1 31.1394 13.1695 19.8113 
35 1 22.2833 3.35161 2.01018 
36 2 20.2279 2.05006 33.9946 
37 1 5.01708 25.9947 2.71697 
38 2 3.78064 19.2579 24.2253 
39 2 9.36444 13.2536 10.969 
40 2 23.1035 1.80503 4.26196 
41 1 14.1556 3.01227 11.3432 
42 2 12.4995 13.4337 11.6215 
ITEM: TIMESTEP
1200
ITEM: NUMBER OF ATOMS
42
ITEM: BOX BOUNDS pp pp pp
1.5241441203141903e+00 3.4844194890143399e+01
1.5241441203141903e+00 3.4844194890143399e+01
1.5241441203141903e+00 3.4844194890143399e+01
ITEM: ATOMS id type x y z 
1 2 11.4855 28.421 13.187 
2 1 25.2971 22.0569 14.7211 
3 1 2.94471 32.5593 25.6135 
4 1 12.9565 17.3555 16.9025 
5 1 25.4844 27.069 29.4929 
6 1 5.90331 24.5814 16.8344 
7 1 23.1063 2.14528 34.7519 
8 1 15.4381 5.23679 9.76266 
9 2 5.38612 23.8822 20.7347 
10 1 11.7742 19.2014 4.97521 
11 2 14.8335 6.18767 12.7487 
12 1 10.2963 20.2884 3.77309 
13 1 27.9899 27.6267 12.9247 
14 2 8.16959 27.5707 1.7331 
15 1 1.89742 17.0926 24.0464 
16 1 6.67553 22.972 4.64726 
17 1 2.91514 17.4947 26.3707 
18 2 11.1869 32.1283 33.6292 
19 2 5.92587 4.10269 28.1081 
20 1 20.8735 15.5713 31.0101 
21 2 8.10208 24.4723 2.50429 
22 1 12.3755 21.4163 4.17452 
23 2 7.73478 21.0955 2.32991 
24 2 17.9894 21.4426 12.377 
25 1 5.31204 18.5067 26.6132 
26 2 7.8241 25.3858 18.9935 
27 1 29.859 4.79123 17.5135 
28 2 11.319 33.8871 30.9945 
29 1 30.8139 12.9477 22.3776 
30 1 31.2243 18.4764 29.1081 
31 2 29.7753 4.82236 25.8523 
32 2 3.93003 34.759 27.0821 
33 1 30.8809 12.0583 13.8385 
34 1 30.8769 13.2383 19.7348 
35 1 22.0392 4.18982 2.23058 
36 2 20.5439 2.33014 33.961 
37 1 5.6779 25.663 3.20659 
38 2 4.26545 19.3257 24.0839 
39 2 9.4629 13.3564 11.1054 
40 2 22.8079 2.09043 4.4072 
41 1 14.452 3.71361 11.2842 
42 2 12.6963 13.5478 11.7681 
